V -t * -v 1.0a5 -a 0
A -t * -n 1 -p 0 -o 0x7fffffff -c 30 -a 1
A -t * -h 1 -m 1073741823 -s 0
n -t * -a 4 -s 4 -S UP -v circle -c black -i black
n -t * -a 0 -s 0 -S UP -v circle -c black -i black
n -t * -a 1 -s 1 -S UP -v circle -c black -i black
n -t * -a 2 -s 2 -S UP -v circle -c black -i black
n -t * -a 3 -s 3 -S UP -v circle -c black -i black
l -t * -s 2 -d 0 -S UP -r 12000000 -D 0.10000000000000001 -c black
l -t * -s 3 -d 0 -S UP -r 12000000 -D 0.10000000000000001 -c black
l -t * -s 4 -d 0 -S UP -r 12000000 -D 0.10000000000000001 -c black
l -t * -s 0 -d 1 -S UP -r 6000000 -D 0.20000000000000001 -c black
+ -t 0.1 -s 3 -d 0 -p cbr -e 1000 -c 0 -i 0 -a 0 -x {3.0 1.0 0 ------- null}
- -t 0.1 -s 3 -d 0 -p cbr -e 1000 -c 0 -i 0 -a 0 -x {3.0 1.0 0 ------- null}
h -t 0.1 -s 3 -d 0 -p cbr -e 1000 -c 0 -i 0 -a 0 -x {3.0 1.0 -1 ------- null}
+ -t 0.1 -s 3 -d 0 -p cbr -e 1000 -c 0 -i 1 -a 0 -x {3.0 1.0 1 ------- null}
+ -t 0.1 -s 3 -d 0 -p cbr -e 1000 -c 0 -i 2 -a 0 -x {3.0 1.0 2 ------- null}
+ -t 0.1 -s 3 -d 0 -p cbr -e 1000 -c 0 -i 3 -a 0 -x {3.0 1.0 3 ------- null}
+ -t 0.1 -s 3 -d 0 -p cbr -e 1000 -c 0 -i 4 -a 0 -x {3.0 1.0 4 ------- null}
+ -t 0.1 -s 3 -d 0 -p cbr -e 1000 -c 0 -i 5 -a 0 -x {3.0 1.0 5 ------- null}
+ -t 0.1 -s 3 -d 0 -p cbr -e 1000 -c 0 -i 6 -a 0 -x {3.0 1.0 6 ------- null}
+ -t 0.1 -s 3 -d 0 -p cbr -e 1000 -c 0 -i 7 -a 0 -x {3.0 1.0 7 ------- null}
+ -t 0.1 -s 3 -d 0 -p cbr -e 1000 -c 0 -i 8 -a 0 -x {3.0 1.0 8 ------- null}
+ -t 0.1 -s 3 -d 0 -p cbr -e 1000 -c 0 -i 9 -a 0 -x {3.0 1.0 9 ------- null}
+ -t 0.1 -s 3 -d 0 -p cbr -e 1000 -c 0 -i 10 -a 0 -x {3.0 1.0 10 ------- null}
+ -t 0.1 -s 3 -d 0 -p cbr -e 1000 -c 0 -i 11 -a 0 -x {3.0 1.0 11 ------- null}
+ -t 0.1 -s 3 -d 0 -p cbr -e 1000 -c 0 -i 12 -a 0 -x {3.0 1.0 12 ------- null}
+ -t 0.1 -s 3 -d 0 -p cbr -e 1000 -c 0 -i 13 -a 0 -x {3.0 1.0 13 ------- null}
+ -t 0.1 -s 3 -d 0 -p cbr -e 1000 -c 0 -i 14 -a 0 -x {3.0 1.0 14 ------- null}
+ -t 0.1 -s 3 -d 0 -p cbr -e 1000 -c 0 -i 15 -a 0 -x {3.0 1.0 15 ------- null}
+ -t 0.1 -s 3 -d 0 -p cbr -e 1000 -c 0 -i 16 -a 0 -x {3.0 1.0 16 ------- null}
+ -t 0.1 -s 3 -d 0 -p cbr -e 1000 -c 0 -i 17 -a 0 -x {3.0 1.0 17 ------- null}
+ -t 0.1 -s 3 -d 0 -p cbr -e 1000 -c 0 -i 18 -a 0 -x {3.0 1.0 18 ------- null}
+ -t 0.1 -s 3 -d 0 -p cbr -e 1000 -c 0 -i 19 -a 0 -x {3.0 1.0 19 ------- null}
+ -t 0.1 -s 3 -d 0 -p cbr -e 1000 -c 0 -i 20 -a 0 -x {3.0 1.0 20 ------- null}
- -t 0.100666666666667 -s 3 -d 0 -p cbr -e 1000 -c 0 -i 1 -a 0 -x {3.0 1.0 1 ------- null}
h -t 0.100666666666667 -s 3 -d 0 -p cbr -e 1000 -c 0 -i 1 -a 0 -x {3.0 1.0 -1 ------- null}
- -t 0.101333333333333 -s 3 -d 0 -p cbr -e 1000 -c 0 -i 2 -a 0 -x {3.0 1.0 2 ------- null}
h -t 0.101333333333333 -s 3 -d 0 -p cbr -e 1000 -c 0 -i 2 -a 0 -x {3.0 1.0 -1 ------- null}
- -t 0.102 -s 3 -d 0 -p cbr -e 1000 -c 0 -i 3 -a 0 -x {3.0 1.0 3 ------- null}
h -t 0.102 -s 3 -d 0 -p cbr -e 1000 -c 0 -i 3 -a 0 -x {3.0 1.0 -1 ------- null}
- -t 0.102666666666667 -s 3 -d 0 -p cbr -e 1000 -c 0 -i 4 -a 0 -x {3.0 1.0 4 ------- null}
h -t 0.102666666666667 -s 3 -d 0 -p cbr -e 1000 -c 0 -i 4 -a 0 -x {3.0 1.0 -1 ------- null}
- -t 0.103333333333333 -s 3 -d 0 -p cbr -e 1000 -c 0 -i 5 -a 0 -x {3.0 1.0 5 ------- null}
h -t 0.103333333333333 -s 3 -d 0 -p cbr -e 1000 -c 0 -i 5 -a 0 -x {3.0 1.0 -1 ------- null}
- -t 0.104 -s 3 -d 0 -p cbr -e 1000 -c 0 -i 6 -a 0 -x {3.0 1.0 6 ------- null}
h -t 0.104 -s 3 -d 0 -p cbr -e 1000 -c 0 -i 6 -a 0 -x {3.0 1.0 -1 ------- null}
- -t 0.104666666666667 -s 3 -d 0 -p cbr -e 1000 -c 0 -i 7 -a 0 -x {3.0 1.0 7 ------- null}
h -t 0.104666666666667 -s 3 -d 0 -p cbr -e 1000 -c 0 -i 7 -a 0 -x {3.0 1.0 -1 ------- null}
- -t 0.105333333333333 -s 3 -d 0 -p cbr -e 1000 -c 0 -i 8 -a 0 -x {3.0 1.0 8 ------- null}
h -t 0.105333333333333 -s 3 -d 0 -p cbr -e 1000 -c 0 -i 8 -a 0 -x {3.0 1.0 -1 ------- null}
- -t 0.106 -s 3 -d 0 -p cbr -e 1000 -c 0 -i 9 -a 0 -x {3.0 1.0 9 ------- null}
h -t 0.106 -s 3 -d 0 -p cbr -e 1000 -c 0 -i 9 -a 0 -x {3.0 1.0 -1 ------- null}
- -t 0.106666666666667 -s 3 -d 0 -p cbr -e 1000 -c 0 -i 10 -a 0 -x {3.0 1.0 10 ------- null}
h -t 0.106666666666667 -s 3 -d 0 -p cbr -e 1000 -c 0 -i 10 -a 0 -x {3.0 1.0 -1 ------- null}
- -t 0.107333333333333 -s 3 -d 0 -p cbr -e 1000 -c 0 -i 11 -a 0 -x {3.0 1.0 11 ------- null}
h -t 0.107333333333333 -s 3 -d 0 -p cbr -e 1000 -c 0 -i 11 -a 0 -x {3.0 1.0 -1 ------- null}
- -t 0.108 -s 3 -d 0 -p cbr -e 1000 -c 0 -i 12 -a 0 -x {3.0 1.0 12 ------- null}
h -t 0.108 -s 3 -d 0 -p cbr -e 1000 -c 0 -i 12 -a 0 -x {3.0 1.0 -1 ------- null}
- -t 0.108666666666667 -s 3 -d 0 -p cbr -e 1000 -c 0 -i 13 -a 0 -x {3.0 1.0 13 ------- null}
h -t 0.108666666666667 -s 3 -d 0 -p cbr -e 1000 -c 0 -i 13 -a 0 -x {3.0 1.0 -1 ------- null}
- -t 0.109333333333333 -s 3 -d 0 -p cbr -e 1000 -c 0 -i 14 -a 0 -x {3.0 1.0 14 ------- null}
h -t 0.109333333333333 -s 3 -d 0 -p cbr -e 1000 -c 0 -i 14 -a 0 -x {3.0 1.0 -1 ------- null}
- -t 0.11 -s 3 -d 0 -p cbr -e 1000 -c 0 -i 15 -a 0 -x {3.0 1.0 15 ------- null}
h -t 0.11 -s 3 -d 0 -p cbr -e 1000 -c 0 -i 15 -a 0 -x {3.0 1.0 -1 ------- null}
- -t 0.110666666666667 -s 3 -d 0 -p cbr -e 1000 -c 0 -i 16 -a 0 -x {3.0 1.0 16 ------- null}
h -t 0.110666666666667 -s 3 -d 0 -p cbr -e 1000 -c 0 -i 16 -a 0 -x {3.0 1.0 -1 ------- null}
- -t 0.111333333333333 -s 3 -d 0 -p cbr -e 1000 -c 0 -i 17 -a 0 -x {3.0 1.0 17 ------- null}
h -t 0.111333333333333 -s 3 -d 0 -p cbr -e 1000 -c 0 -i 17 -a 0 -x {3.0 1.0 -1 ------- null}
- -t 0.112 -s 3 -d 0 -p cbr -e 1000 -c 0 -i 18 -a 0 -x {3.0 1.0 18 ------- null}
h -t 0.112 -s 3 -d 0 -p cbr -e 1000 -c 0 -i 18 -a 0 -x {3.0 1.0 -1 ------- null}
- -t 0.112666666666667 -s 3 -d 0 -p cbr -e 1000 -c 0 -i 19 -a 0 -x {3.0 1.0 19 ------- null}
h -t 0.112666666666667 -s 3 -d 0 -p cbr -e 1000 -c 0 -i 19 -a 0 -x {3.0 1.0 -1 ------- null}
- -t 0.113333333333333 -s 3 -d 0 -p cbr -e 1000 -c 0 -i 20 -a 0 -x {3.0 1.0 20 ------- null}
h -t 0.113333333333333 -s 3 -d 0 -p cbr -e 1000 -c 0 -i 20 -a 0 -x {3.0 1.0 -1 ------- null}
r -t 0.200666666666667 -s 3 -d 0 -p cbr -e 1000 -c 0 -i 0 -a 0 -x {3.0 1.0 0 ------- null}
+ -t 0.200666666666667 -s 0 -d 1 -p cbr -e 1000 -c 0 -i 0 -a 0 -x {3.0 1.0 0 ------- null}
- -t 0.200666666666667 -s 0 -d 1 -p cbr -e 1000 -c 0 -i 0 -a 0 -x {3.0 1.0 0 ------- null}
h -t 0.200666666666667 -s 0 -d 1 -p cbr -e 1000 -c 0 -i 0 -a 0 -x {3.0 1.0 -1 ------- null}
r -t 0.201333333333333 -s 3 -d 0 -p cbr -e 1000 -c 0 -i 1 -a 0 -x {3.0 1.0 1 ------- null}
+ -t 0.201333333333333 -s 0 -d 1 -p cbr -e 1000 -c 0 -i 1 -a 0 -x {3.0 1.0 1 ------- null}
- -t 0.202 -s 0 -d 1 -p cbr -e 1000 -c 0 -i 1 -a 0 -x {3.0 1.0 1 ------- null}
h -t 0.202 -s 0 -d 1 -p cbr -e 1000 -c 0 -i 1 -a 0 -x {3.0 1.0 -1 ------- null}
r -t 0.202 -s 3 -d 0 -p cbr -e 1000 -c 0 -i 2 -a 0 -x {3.0 1.0 2 ------- null}
+ -t 0.202 -s 0 -d 1 -p cbr -e 1000 -c 0 -i 2 -a 0 -x {3.0 1.0 2 ------- null}
r -t 0.202666666666667 -s 3 -d 0 -p cbr -e 1000 -c 0 -i 3 -a 0 -x {3.0 1.0 3 ------- null}
+ -t 0.202666666666667 -s 0 -d 1 -p cbr -e 1000 -c 0 -i 3 -a 0 -x {3.0 1.0 3 ------- null}
r -t 0.203333333333333 -s 3 -d 0 -p cbr -e 1000 -c 0 -i 4 -a 0 -x {3.0 1.0 4 ------- null}
+ -t 0.203333333333333 -s 0 -d 1 -p cbr -e 1000 -c 0 -i 4 -a 0 -x {3.0 1.0 4 ------- null}
- -t 0.203333333333333 -s 0 -d 1 -p cbr -e 1000 -c 0 -i 2 -a 0 -x {3.0 1.0 2 ------- null}
h -t 0.203333333333333 -s 0 -d 1 -p cbr -e 1000 -c 0 -i 2 -a 0 -x {3.0 1.0 -1 ------- null}
r -t 0.204 -s 3 -d 0 -p cbr -e 1000 -c 0 -i 5 -a 0 -x {3.0 1.0 5 ------- null}
+ -t 0.204 -s 0 -d 1 -p cbr -e 1000 -c 0 -i 5 -a 0 -x {3.0 1.0 5 ------- null}
- -t 0.204666666666667 -s 0 -d 1 -p cbr -e 1000 -c 0 -i 3 -a 0 -x {3.0 1.0 3 ------- null}
h -t 0.204666666666667 -s 0 -d 1 -p cbr -e 1000 -c 0 -i 3 -a 0 -x {3.0 1.0 -1 ------- null}
r -t 0.204666666666667 -s 3 -d 0 -p cbr -e 1000 -c 0 -i 6 -a 0 -x {3.0 1.0 6 ------- null}
+ -t 0.204666666666667 -s 0 -d 1 -p cbr -e 1000 -c 0 -i 6 -a 0 -x {3.0 1.0 6 ------- null}
r -t 0.205333333333333 -s 3 -d 0 -p cbr -e 1000 -c 0 -i 7 -a 0 -x {3.0 1.0 7 ------- null}
+ -t 0.205333333333333 -s 0 -d 1 -p cbr -e 1000 -c 0 -i 7 -a 0 -x {3.0 1.0 7 ------- null}
r -t 0.206 -s 3 -d 0 -p cbr -e 1000 -c 0 -i 8 -a 0 -x {3.0 1.0 8 ------- null}
+ -t 0.206 -s 0 -d 1 -p cbr -e 1000 -c 0 -i 8 -a 0 -x {3.0 1.0 8 ------- null}
- -t 0.206 -s 0 -d 1 -p cbr -e 1000 -c 0 -i 4 -a 0 -x {3.0 1.0 4 ------- null}
h -t 0.206 -s 0 -d 1 -p cbr -e 1000 -c 0 -i 4 -a 0 -x {3.0 1.0 -1 ------- null}
r -t 0.206666666666667 -s 3 -d 0 -p cbr -e 1000 -c 0 -i 9 -a 0 -x {3.0 1.0 9 ------- null}
+ -t 0.206666666666667 -s 0 -d 1 -p cbr -e 1000 -c 0 -i 9 -a 0 -x {3.0 1.0 9 ------- null}
- -t 0.207333333333333 -s 0 -d 1 -p cbr -e 1000 -c 0 -i 5 -a 0 -x {3.0 1.0 5 ------- null}
h -t 0.207333333333333 -s 0 -d 1 -p cbr -e 1000 -c 0 -i 5 -a 0 -x {3.0 1.0 -1 ------- null}
r -t 0.207333333333333 -s 3 -d 0 -p cbr -e 1000 -c 0 -i 10 -a 0 -x {3.0 1.0 10 ------- null}
+ -t 0.207333333333333 -s 0 -d 1 -p cbr -e 1000 -c 0 -i 10 -a 0 -x {3.0 1.0 10 ------- null}
r -t 0.208 -s 3 -d 0 -p cbr -e 1000 -c 0 -i 11 -a 0 -x {3.0 1.0 11 ------- null}
+ -t 0.208 -s 0 -d 1 -p cbr -e 1000 -c 0 -i 11 -a 0 -x {3.0 1.0 11 ------- null}
r -t 0.208666666666667 -s 3 -d 0 -p cbr -e 1000 -c 0 -i 12 -a 0 -x {3.0 1.0 12 ------- null}
+ -t 0.208666666666667 -s 0 -d 1 -p cbr -e 1000 -c 0 -i 12 -a 0 -x {3.0 1.0 12 ------- null}
- -t 0.208666666666667 -s 0 -d 1 -p cbr -e 1000 -c 0 -i 6 -a 0 -x {3.0 1.0 6 ------- null}
h -t 0.208666666666667 -s 0 -d 1 -p cbr -e 1000 -c 0 -i 6 -a 0 -x {3.0 1.0 -1 ------- null}
r -t 0.209333333333333 -s 3 -d 0 -p cbr -e 1000 -c 0 -i 13 -a 0 -x {3.0 1.0 13 ------- null}
+ -t 0.209333333333333 -s 0 -d 1 -p cbr -e 1000 -c 0 -i 13 -a 0 -x {3.0 1.0 13 ------- null}
- -t 0.21 -s 0 -d 1 -p cbr -e 1000 -c 0 -i 7 -a 0 -x {3.0 1.0 7 ------- null}
h -t 0.21 -s 0 -d 1 -p cbr -e 1000 -c 0 -i 7 -a 0 -x {3.0 1.0 -1 ------- null}
r -t 0.21 -s 3 -d 0 -p cbr -e 1000 -c 0 -i 14 -a 0 -x {3.0 1.0 14 ------- null}
+ -t 0.21 -s 0 -d 1 -p cbr -e 1000 -c 0 -i 14 -a 0 -x {3.0 1.0 14 ------- null}
r -t 0.210666666666667 -s 3 -d 0 -p cbr -e 1000 -c 0 -i 15 -a 0 -x {3.0 1.0 15 ------- null}
+ -t 0.210666666666667 -s 0 -d 1 -p cbr -e 1000 -c 0 -i 15 -a 0 -x {3.0 1.0 15 ------- null}
r -t 0.211333333333333 -s 3 -d 0 -p cbr -e 1000 -c 0 -i 16 -a 0 -x {3.0 1.0 16 ------- null}
+ -t 0.211333333333333 -s 0 -d 1 -p cbr -e 1000 -c 0 -i 16 -a 0 -x {3.0 1.0 16 ------- null}
- -t 0.211333333333333 -s 0 -d 1 -p cbr -e 1000 -c 0 -i 8 -a 0 -x {3.0 1.0 8 ------- null}
h -t 0.211333333333333 -s 0 -d 1 -p cbr -e 1000 -c 0 -i 8 -a 0 -x {3.0 1.0 -1 ------- null}
r -t 0.212 -s 3 -d 0 -p cbr -e 1000 -c 0 -i 17 -a 0 -x {3.0 1.0 17 ------- null}
+ -t 0.212 -s 0 -d 1 -p cbr -e 1000 -c 0 -i 17 -a 0 -x {3.0 1.0 17 ------- null}
- -t 0.212666666666667 -s 0 -d 1 -p cbr -e 1000 -c 0 -i 9 -a 0 -x {3.0 1.0 9 ------- null}
h -t 0.212666666666667 -s 0 -d 1 -p cbr -e 1000 -c 0 -i 9 -a 0 -x {3.0 1.0 -1 ------- null}
r -t 0.212666666666667 -s 3 -d 0 -p cbr -e 1000 -c 0 -i 18 -a 0 -x {3.0 1.0 18 ------- null}
+ -t 0.212666666666667 -s 0 -d 1 -p cbr -e 1000 -c 0 -i 18 -a 0 -x {3.0 1.0 18 ------- null}
r -t 0.213333333333333 -s 3 -d 0 -p cbr -e 1000 -c 0 -i 19 -a 0 -x {3.0 1.0 19 ------- null}
+ -t 0.213333333333333 -s 0 -d 1 -p cbr -e 1000 -c 0 -i 19 -a 0 -x {3.0 1.0 19 ------- null}
r -t 0.214 -s 3 -d 0 -p cbr -e 1000 -c 0 -i 20 -a 0 -x {3.0 1.0 20 ------- null}
+ -t 0.214 -s 0 -d 1 -p cbr -e 1000 -c 0 -i 20 -a 0 -x {3.0 1.0 20 ------- null}
- -t 0.214 -s 0 -d 1 -p cbr -e 1000 -c 0 -i 10 -a 0 -x {3.0 1.0 10 ------- null}
h -t 0.214 -s 0 -d 1 -p cbr -e 1000 -c 0 -i 10 -a 0 -x {3.0 1.0 -1 ------- null}
- -t 0.215333333333333 -s 0 -d 1 -p cbr -e 1000 -c 0 -i 11 -a 0 -x {3.0 1.0 11 ------- null}
h -t 0.215333333333333 -s 0 -d 1 -p cbr -e 1000 -c 0 -i 11 -a 0 -x {3.0 1.0 -1 ------- null}
- -t 0.216666666666667 -s 0 -d 1 -p cbr -e 1000 -c 0 -i 12 -a 0 -x {3.0 1.0 12 ------- null}
h -t 0.216666666666667 -s 0 -d 1 -p cbr -e 1000 -c 0 -i 12 -a 0 -x {3.0 1.0 -1 ------- null}
- -t 0.218 -s 0 -d 1 -p cbr -e 1000 -c 0 -i 13 -a 0 -x {3.0 1.0 13 ------- null}
h -t 0.218 -s 0 -d 1 -p cbr -e 1000 -c 0 -i 13 -a 0 -x {3.0 1.0 -1 ------- null}
- -t 0.219333333333333 -s 0 -d 1 -p cbr -e 1000 -c 0 -i 14 -a 0 -x {3.0 1.0 14 ------- null}
h -t 0.219333333333333 -s 0 -d 1 -p cbr -e 1000 -c 0 -i 14 -a 0 -x {3.0 1.0 -1 ------- null}
- -t 0.220666666666667 -s 0 -d 1 -p cbr -e 1000 -c 0 -i 15 -a 0 -x {3.0 1.0 15 ------- null}
h -t 0.220666666666667 -s 0 -d 1 -p cbr -e 1000 -c 0 -i 15 -a 0 -x {3.0 1.0 -1 ------- null}
- -t 0.222 -s 0 -d 1 -p cbr -e 1000 -c 0 -i 16 -a 0 -x {3.0 1.0 16 ------- null}
h -t 0.222 -s 0 -d 1 -p cbr -e 1000 -c 0 -i 16 -a 0 -x {3.0 1.0 -1 ------- null}
- -t 0.223333333333333 -s 0 -d 1 -p cbr -e 1000 -c 0 -i 17 -a 0 -x {3.0 1.0 17 ------- null}
h -t 0.223333333333333 -s 0 -d 1 -p cbr -e 1000 -c 0 -i 17 -a 0 -x {3.0 1.0 -1 ------- null}
- -t 0.224666666666667 -s 0 -d 1 -p cbr -e 1000 -c 0 -i 18 -a 0 -x {3.0 1.0 18 ------- null}
h -t 0.224666666666667 -s 0 -d 1 -p cbr -e 1000 -c 0 -i 18 -a 0 -x {3.0 1.0 -1 ------- null}
- -t 0.226 -s 0 -d 1 -p cbr -e 1000 -c 0 -i 19 -a 0 -x {3.0 1.0 19 ------- null}
h -t 0.226 -s 0 -d 1 -p cbr -e 1000 -c 0 -i 19 -a 0 -x {3.0 1.0 -1 ------- null}
- -t 0.227333333333333 -s 0 -d 1 -p cbr -e 1000 -c 0 -i 20 -a 0 -x {3.0 1.0 20 ------- null}
h -t 0.227333333333333 -s 0 -d 1 -p cbr -e 1000 -c 0 -i 20 -a 0 -x {3.0 1.0 -1 ------- null}
r -t 0.402 -s 0 -d 1 -p cbr -e 1000 -c 0 -i 0 -a 0 -x {3.0 1.0 0 ------- null}
r -t 0.403333333333333 -s 0 -d 1 -p cbr -e 1000 -c 0 -i 1 -a 0 -x {3.0 1.0 1 ------- null}
r -t 0.404666666666667 -s 0 -d 1 -p cbr -e 1000 -c 0 -i 2 -a 0 -x {3.0 1.0 2 ------- null}
r -t 0.406 -s 0 -d 1 -p cbr -e 1000 -c 0 -i 3 -a 0 -x {3.0 1.0 3 ------- null}
r -t 0.407333333333333 -s 0 -d 1 -p cbr -e 1000 -c 0 -i 4 -a 0 -x {3.0 1.0 4 ------- null}
r -t 0.408666666666667 -s 0 -d 1 -p cbr -e 1000 -c 0 -i 5 -a 0 -x {3.0 1.0 5 ------- null}
r -t 0.41 -s 0 -d 1 -p cbr -e 1000 -c 0 -i 6 -a 0 -x {3.0 1.0 6 ------- null}
r -t 0.411333333333333 -s 0 -d 1 -p cbr -e 1000 -c 0 -i 7 -a 0 -x {3.0 1.0 7 ------- null}
r -t 0.412666666666667 -s 0 -d 1 -p cbr -e 1000 -c 0 -i 8 -a 0 -x {3.0 1.0 8 ------- null}
r -t 0.414 -s 0 -d 1 -p cbr -e 1000 -c 0 -i 9 -a 0 -x {3.0 1.0 9 ------- null}
r -t 0.415333333333333 -s 0 -d 1 -p cbr -e 1000 -c 0 -i 10 -a 0 -x {3.0 1.0 10 ------- null}
r -t 0.416666666666667 -s 0 -d 1 -p cbr -e 1000 -c 0 -i 11 -a 0 -x {3.0 1.0 11 ------- null}
r -t 0.418 -s 0 -d 1 -p cbr -e 1000 -c 0 -i 12 -a 0 -x {3.0 1.0 12 ------- null}
r -t 0.419333333333333 -s 0 -d 1 -p cbr -e 1000 -c 0 -i 13 -a 0 -x {3.0 1.0 13 ------- null}
r -t 0.420666666666667 -s 0 -d 1 -p cbr -e 1000 -c 0 -i 14 -a 0 -x {3.0 1.0 14 ------- null}
r -t 0.422 -s 0 -d 1 -p cbr -e 1000 -c 0 -i 15 -a 0 -x {3.0 1.0 15 ------- null}
r -t 0.423333333333333 -s 0 -d 1 -p cbr -e 1000 -c 0 -i 16 -a 0 -x {3.0 1.0 16 ------- null}
r -t 0.424666666666667 -s 0 -d 1 -p cbr -e 1000 -c 0 -i 17 -a 0 -x {3.0 1.0 17 ------- null}
r -t 0.426 -s 0 -d 1 -p cbr -e 1000 -c 0 -i 18 -a 0 -x {3.0 1.0 18 ------- null}
r -t 0.427333333333333 -s 0 -d 1 -p cbr -e 1000 -c 0 -i 19 -a 0 -x {3.0 1.0 19 ------- null}
r -t 0.428666666666667 -s 0 -d 1 -p cbr -e 1000 -c 0 -i 20 -a 0 -x {3.0 1.0 20 ------- null}
