+ 0.1 3 0 cbr 1000 ------- 0 3.0 1.0 0 0
- 0.1 3 0 cbr 1000 ------- 0 3.0 1.0 0 0
+ 0.1 3 0 cbr 1000 ------- 0 3.0 1.0 1 1
+ 0.1 3 0 cbr 1000 ------- 0 3.0 1.0 2 2
+ 0.1 3 0 cbr 1000 ------- 0 3.0 1.0 3 3
+ 0.1 3 0 cbr 1000 ------- 0 3.0 1.0 4 4
+ 0.1 3 0 cbr 1000 ------- 0 3.0 1.0 5 5
+ 0.1 3 0 cbr 1000 ------- 0 3.0 1.0 6 6
+ 0.1 3 0 cbr 1000 ------- 0 3.0 1.0 7 7
+ 0.1 3 0 cbr 1000 ------- 0 3.0 1.0 8 8
+ 0.1 3 0 cbr 1000 ------- 0 3.0 1.0 9 9
+ 0.1 3 0 cbr 1000 ------- 0 3.0 1.0 10 10
+ 0.1 3 0 cbr 1000 ------- 0 3.0 1.0 11 11
+ 0.1 3 0 cbr 1000 ------- 0 3.0 1.0 12 12
+ 0.1 3 0 cbr 1000 ------- 0 3.0 1.0 13 13
+ 0.1 3 0 cbr 1000 ------- 0 3.0 1.0 14 14
+ 0.1 3 0 cbr 1000 ------- 0 3.0 1.0 15 15
+ 0.1 3 0 cbr 1000 ------- 0 3.0 1.0 16 16
+ 0.1 3 0 cbr 1000 ------- 0 3.0 1.0 17 17
+ 0.1 3 0 cbr 1000 ------- 0 3.0 1.0 18 18
+ 0.1 3 0 cbr 1000 ------- 0 3.0 1.0 19 19
+ 0.1 3 0 cbr 1000 ------- 0 3.0 1.0 20 20
- 0.100667 3 0 cbr 1000 ------- 0 3.0 1.0 1 1
- 0.101333 3 0 cbr 1000 ------- 0 3.0 1.0 2 2
- 0.102 3 0 cbr 1000 ------- 0 3.0 1.0 3 3
- 0.102667 3 0 cbr 1000 ------- 0 3.0 1.0 4 4
- 0.103333 3 0 cbr 1000 ------- 0 3.0 1.0 5 5
- 0.104 3 0 cbr 1000 ------- 0 3.0 1.0 6 6
- 0.104667 3 0 cbr 1000 ------- 0 3.0 1.0 7 7
- 0.105333 3 0 cbr 1000 ------- 0 3.0 1.0 8 8
- 0.106 3 0 cbr 1000 ------- 0 3.0 1.0 9 9
- 0.106667 3 0 cbr 1000 ------- 0 3.0 1.0 10 10
- 0.107333 3 0 cbr 1000 ------- 0 3.0 1.0 11 11
- 0.108 3 0 cbr 1000 ------- 0 3.0 1.0 12 12
- 0.108667 3 0 cbr 1000 ------- 0 3.0 1.0 13 13
- 0.109333 3 0 cbr 1000 ------- 0 3.0 1.0 14 14
- 0.11 3 0 cbr 1000 ------- 0 3.0 1.0 15 15
- 0.110667 3 0 cbr 1000 ------- 0 3.0 1.0 16 16
- 0.111333 3 0 cbr 1000 ------- 0 3.0 1.0 17 17
- 0.112 3 0 cbr 1000 ------- 0 3.0 1.0 18 18
- 0.112667 3 0 cbr 1000 ------- 0 3.0 1.0 19 19
- 0.113333 3 0 cbr 1000 ------- 0 3.0 1.0 20 20
r 0.200667 3 0 cbr 1000 ------- 0 3.0 1.0 0 0
+ 0.200667 0 1 cbr 1000 ------- 0 3.0 1.0 0 0
- 0.200667 0 1 cbr 1000 ------- 0 3.0 1.0 0 0
r 0.201333 3 0 cbr 1000 ------- 0 3.0 1.0 1 1
+ 0.201333 0 1 cbr 1000 ------- 0 3.0 1.0 1 1
- 0.202 0 1 cbr 1000 ------- 0 3.0 1.0 1 1
r 0.202 3 0 cbr 1000 ------- 0 3.0 1.0 2 2
+ 0.202 0 1 cbr 1000 ------- 0 3.0 1.0 2 2
r 0.202667 3 0 cbr 1000 ------- 0 3.0 1.0 3 3
+ 0.202667 0 1 cbr 1000 ------- 0 3.0 1.0 3 3
r 0.203333 3 0 cbr 1000 ------- 0 3.0 1.0 4 4
+ 0.203333 0 1 cbr 1000 ------- 0 3.0 1.0 4 4
- 0.203333 0 1 cbr 1000 ------- 0 3.0 1.0 2 2
r 0.204 3 0 cbr 1000 ------- 0 3.0 1.0 5 5
+ 0.204 0 1 cbr 1000 ------- 0 3.0 1.0 5 5
- 0.204667 0 1 cbr 1000 ------- 0 3.0 1.0 3 3
r 0.204667 3 0 cbr 1000 ------- 0 3.0 1.0 6 6
+ 0.204667 0 1 cbr 1000 ------- 0 3.0 1.0 6 6
r 0.205333 3 0 cbr 1000 ------- 0 3.0 1.0 7 7
+ 0.205333 0 1 cbr 1000 ------- 0 3.0 1.0 7 7
r 0.206 3 0 cbr 1000 ------- 0 3.0 1.0 8 8
+ 0.206 0 1 cbr 1000 ------- 0 3.0 1.0 8 8
- 0.206 0 1 cbr 1000 ------- 0 3.0 1.0 4 4
r 0.206667 3 0 cbr 1000 ------- 0 3.0 1.0 9 9
+ 0.206667 0 1 cbr 1000 ------- 0 3.0 1.0 9 9
- 0.207333 0 1 cbr 1000 ------- 0 3.0 1.0 5 5
r 0.207333 3 0 cbr 1000 ------- 0 3.0 1.0 10 10
+ 0.207333 0 1 cbr 1000 ------- 0 3.0 1.0 10 10
r 0.208 3 0 cbr 1000 ------- 0 3.0 1.0 11 11
+ 0.208 0 1 cbr 1000 ------- 0 3.0 1.0 11 11
r 0.208667 3 0 cbr 1000 ------- 0 3.0 1.0 12 12
+ 0.208667 0 1 cbr 1000 ------- 0 3.0 1.0 12 12
- 0.208667 0 1 cbr 1000 ------- 0 3.0 1.0 6 6
r 0.209333 3 0 cbr 1000 ------- 0 3.0 1.0 13 13
+ 0.209333 0 1 cbr 1000 ------- 0 3.0 1.0 13 13
- 0.21 0 1 cbr 1000 ------- 0 3.0 1.0 7 7
r 0.21 3 0 cbr 1000 ------- 0 3.0 1.0 14 14
+ 0.21 0 1 cbr 1000 ------- 0 3.0 1.0 14 14
r 0.210667 3 0 cbr 1000 ------- 0 3.0 1.0 15 15
+ 0.210667 0 1 cbr 1000 ------- 0 3.0 1.0 15 15
r 0.211333 3 0 cbr 1000 ------- 0 3.0 1.0 16 16
+ 0.211333 0 1 cbr 1000 ------- 0 3.0 1.0 16 16
- 0.211333 0 1 cbr 1000 ------- 0 3.0 1.0 8 8
r 0.212 3 0 cbr 1000 ------- 0 3.0 1.0 17 17
+ 0.212 0 1 cbr 1000 ------- 0 3.0 1.0 17 17
- 0.212667 0 1 cbr 1000 ------- 0 3.0 1.0 9 9
r 0.212667 3 0 cbr 1000 ------- 0 3.0 1.0 18 18
+ 0.212667 0 1 cbr 1000 ------- 0 3.0 1.0 18 18
r 0.213333 3 0 cbr 1000 ------- 0 3.0 1.0 19 19
+ 0.213333 0 1 cbr 1000 ------- 0 3.0 1.0 19 19
r 0.214 3 0 cbr 1000 ------- 0 3.0 1.0 20 20
+ 0.214 0 1 cbr 1000 ------- 0 3.0 1.0 20 20
- 0.214 0 1 cbr 1000 ------- 0 3.0 1.0 10 10
- 0.215333 0 1 cbr 1000 ------- 0 3.0 1.0 11 11
- 0.216667 0 1 cbr 1000 ------- 0 3.0 1.0 12 12
- 0.218 0 1 cbr 1000 ------- 0 3.0 1.0 13 13
- 0.219333 0 1 cbr 1000 ------- 0 3.0 1.0 14 14
- 0.220667 0 1 cbr 1000 ------- 0 3.0 1.0 15 15
- 0.222 0 1 cbr 1000 ------- 0 3.0 1.0 16 16
- 0.223333 0 1 cbr 1000 ------- 0 3.0 1.0 17 17
- 0.224667 0 1 cbr 1000 ------- 0 3.0 1.0 18 18
- 0.226 0 1 cbr 1000 ------- 0 3.0 1.0 19 19
- 0.227333 0 1 cbr 1000 ------- 0 3.0 1.0 20 20
r 0.402 0 1 cbr 1000 ------- 0 3.0 1.0 0 0
r 0.403333 0 1 cbr 1000 ------- 0 3.0 1.0 1 1
r 0.404667 0 1 cbr 1000 ------- 0 3.0 1.0 2 2
r 0.406 0 1 cbr 1000 ------- 0 3.0 1.0 3 3
r 0.407333 0 1 cbr 1000 ------- 0 3.0 1.0 4 4
r 0.408667 0 1 cbr 1000 ------- 0 3.0 1.0 5 5
r 0.41 0 1 cbr 1000 ------- 0 3.0 1.0 6 6
r 0.411333 0 1 cbr 1000 ------- 0 3.0 1.0 7 7
r 0.412667 0 1 cbr 1000 ------- 0 3.0 1.0 8 8
r 0.414 0 1 cbr 1000 ------- 0 3.0 1.0 9 9
r 0.415333 0 1 cbr 1000 ------- 0 3.0 1.0 10 10
r 0.416667 0 1 cbr 1000 ------- 0 3.0 1.0 11 11
r 0.418 0 1 cbr 1000 ------- 0 3.0 1.0 12 12
r 0.419333 0 1 cbr 1000 ------- 0 3.0 1.0 13 13
r 0.420667 0 1 cbr 1000 ------- 0 3.0 1.0 14 14
r 0.422 0 1 cbr 1000 ------- 0 3.0 1.0 15 15
r 0.423333 0 1 cbr 1000 ------- 0 3.0 1.0 16 16
r 0.424667 0 1 cbr 1000 ------- 0 3.0 1.0 17 17
r 0.426 0 1 cbr 1000 ------- 0 3.0 1.0 18 18
r 0.427333 0 1 cbr 1000 ------- 0 3.0 1.0 19 19
r 0.428667 0 1 cbr 1000 ------- 0 3.0 1.0 20 20
